# vtk DataFile Version 2.0
I need something to put here
ASCII

DATASET STRUCTURED_GRID
DIMENSIONS 21 11 21
POINTS 4851 float
0.000000 0.000000 0.000000
0.050000 0.000000 0.000000
0.100000 0.000000 0.000000
0.150000 0.000000 0.000000
0.200000 0.000000 0.000000
0.250000 0.000000 0.000000
0.300000 0.000000 0.000000
0.350000 0.000000 0.000000
0.400000 0.000000 0.000000
0.450000 0.000000 0.000000
0.500000 0.000000 0.000000
0.550000 0.000000 0.000000
0.600000 0.000000 0.000000
0.650000 0.000000 0.000000
0.700000 0.000000 0.000000
0.750000 0.000000 0.000000
0.800000 0.000000 0.000000
0.850000 0.000000 0.000000
0.900000 0.000000 0.000000
0.950000 0.000000 0.000000
1.000000 0.000000 0.000000
0.000000 0.100000 0.000000
0.050000 0.100000 0.000000
0.100000 0.100000 0.000000
0.150000 0.100000 0.000000
0.200000 0.100000 0.000000
0.250000 0.100000 0.000000
0.300000 0.100000 0.000000
0.350000 0.100000 0.000000
0.400000 0.100000 0.000000
0.450000 0.100000 0.000000
0.500000 0.100000 0.000000
0.550000 0.100000 0.000000
0.600000 0.100000 0.000000
0.650000 0.100000 0.000000
0.700000 0.100000 0.000000
0.750000 0.100000 0.000000
0.800000 0.100000 0.000000
0.850000 0.100000 0.000000
0.900000 0.100000 0.000000
0.950000 0.100000 0.000000
1.000000 0.100000 0.000000
0.000000 0.200000 0.000000
0.050000 0.200000 0.000000
0.100000 0.200000 0.000000
0.150000 0.200000 0.000000
0.200000 0.200000 0.000000
0.250000 0.200000 0.000000
0.300000 0.200000 0.000000
0.350000 0.200000 0.000000
0.400000 0.200000 0.000000
0.450000 0.200000 0.000000
0.500000 0.200000 0.000000
0.550000 0.200000 0.000000
0.600000 0.200000 0.000000
0.650000 0.200000 0.000000
0.700000 0.200000 0.000000
0.750000 0.200000 0.000000
0.800000 0.200000 0.000000
0.850000 0.200000 0.000000
0.900000 0.200000 0.000000
0.950000 0.200000 0.000000
1.000000 0.200000 0.000000
0.000000 0.300000 0.000000
0.050000 0.300000 0.000000
0.100000 0.300000 0.000000
0.150000 0.300000 0.000000
0.200000 0.300000 0.000000
0.250000 0.300000 0.000000
0.300000 0.300000 0.000000
0.350000 0.300000 0.000000
0.400000 0.300000 0.000000
0.450000 0.300000 0.000000
0.500000 0.300000 0.000000
0.550000 0.300000 0.000000
0.600000 0.300000 0.000000
0.650000 0.300000 0.000000
0.700000 0.300000 0.000000
0.750000 0.300000 0.000000
0.800000 0.300000 0.000000
0.850000 0.300000 0.000000
0.900000 0.300000 0.000000
0.950000 0.300000 0.000000
1.000000 0.300000 0.000000
0.000000 0.400000 0.000000
0.050000 0.400000 0.000000
0.100000 0.400000 0.000000
0.150000 0.400000 0.000000
0.200000 0.400000 0.000000
0.250000 0.400000 0.000000
0.300000 0.400000 0.000000
0.350000 0.400000 0.000000
0.400000 0.400000 0.000000
0.450000 0.400000 0.000000
0.500000 0.400000 0.000000
0.550000 0.400000 0.000000
0.600000 0.400000 0.000000
0.650000 0.400000 0.000000
0.700000 0.400000 0.000000
0.750000 0.400000 0.000000
0.800000 0.400000 0.000000
0.850000 0.400000 0.000000
0.900000 0.400000 0.000000
0.950000 0.400000 0.000000
1.000000 0.400000 0.000000
0.000000 0.500000 0.000000
0.050000 0.500000 0.000000
0.100000 0.500000 0.000000
0.150000 0.500000 0.000000
0.200000 0.500000 0.000000
0.250000 0.500000 0.000000
0.300000 0.500000 0.000000
0.350000 0.500000 0.000000
0.400000 0.500000 0.000000
0.450000 0.500000 0.000000
0.500000 0.500000 0.000000
0.550000 0.500000 0.000000
0.600000 0.500000 0.000000
0.650000 0.500000 0.000000
0.700000 0.500000 0.000000
0.750000 0.500000 0.000000
0.800000 0.500000 0.000000
0.850000 0.500000 0.000000
0.900000 0.500000 0.000000
0.950000 0.500000 0.000000
1.000000 0.500000 0.000000
0.000000 0.600000 0.000000
0.050000 0.600000 0.000000
0.100000 0.600000 0.000000
0.150000 0.600000 0.000000
0.200000 0.600000 0.000000
0.250000 0.600000 0.000000
0.300000 0.600000 0.000000
0.350000 0.600000 0.000000
0.400000 0.600000 0.000000
0.450000 0.600000 0.000000
0.500000 0.600000 0.000000
0.550000 0.600000 0.000000
0.600000 0.600000 0.000000
0.650000 0.600000 0.000000
0.700000 0.600000 0.000000
0.750000 0.600000 0.000000
0.800000 0.600000 0.000000
0.850000 0.600000 0.000000
0.900000 0.600000 0.000000
0.950000 0.600000 0.000000
1.000000 0.600000 0.000000
0.000000 0.700000 0.000000
0.050000 0.700000 0.000000
0.100000 0.700000 0.000000
0.150000 0.700000 0.000000
0.200000 0.700000 0.000000
0.250000 0.700000 0.000000
0.300000 0.700000 0.000000
0.350000 0.700000 0.000000
0.400000 0.700000 0.000000
0.450000 0.700000 0.000000
0.500000 0.700000 0.000000
0.550000 0.700000 0.000000
0.600000 0.700000 0.000000
0.650000 0.700000 0.000000
0.700000 0.700000 0.000000
0.750000 0.700000 0.000000
0.800000 0.700000 0.000000
0.850000 0.700000 0.000000
0.900000 0.700000 0.000000
0.950000 0.700000 0.000000
1.000000 0.700000 0.000000
0.000000 0.800000 0.000000
0.050000 0.800000 0.000000
0.100000 0.800000 0.000000
0.150000 0.800000 0.000000
0.200000 0.800000 0.000000
0.250000 0.800000 0.000000
0.300000 0.800000 0.000000
0.350000 0.800000 0.000000
0.400000 0.800000 0.000000
0.450000 0.800000 0.000000
0.500000 0.800000 0.000000
0.550000 0.800000 0.000000
0.600000 0.800000 0.000000
0.650000 0.800000 0.000000
0.700000 0.800000 0.000000
0.750000 0.800000 0.000000
0.800000 0.800000 0.000000
0.850000 0.800000 0.000000
0.900000 0.800000 0.000000
0.950000 0.800000 0.000000
1.000000 0.800000 0.000000
0.000000 0.900000 0.000000
0.050000 0.900000 0.000000
0.100000 0.900000 0.000000
0.150000 0.900000 0.000000
0.200000 0.900000 0.000000
0.250000 0.900000 0.000000
0.300000 0.900000 0.000000
0.350000 0.900000 0.000000
0.400000 0.900000 0.000000
0.450000 0.900000 0.000000
0.500000 0.900000 0.000000
0.550000 0.900000 0.000000
0.600000 0.900000 0.000000
0.650000 0.900000 0.000000
0.700000 0.900000 0.000000
0.750000 0.900000 0.000000
0.800000 0.900000 0.000000
0.850000 0.900000 0.000000
0.900000 0.900000 0.000000
0.950000 0.900000 0.000000
1.000000 0.900000 0.000000
0.000000 1.000000 0.000000
0.050000 1.000000 0.000000
0.100000 1.000000 0.000000
0.150000 1.000000 0.000000
0.200000 1.000000 0.000000
0.250000 1.000000 0.000000
0.300000 1.000000 0.000000
0.350000 1.000000 0.000000
0.400000 1.000000 0.000000
0.450000 1.000000 0.000000
0.500000 1.000000 0.000000
0.550000 1.000000 0.000000
0.600000 1.000000 0.000000
0.650000 1.000000 0.000000
0.700000 1.000000 0.000000
0.750000 1.000000 0.000000
0.800000 1.000000 0.000000
0.850000 1.000000 0.000000
0.900000 1.000000 0.000000
0.950000 1.000000 0.000000
1.000000 1.000000 0.000000
0.000000 0.000000 0.050000
0.050000 0.000000 0.050000
0.100000 0.000000 0.050000
0.150000 0.000000 0.050000
0.200000 0.000000 0.050000
0.250000 0.000000 0.050000
0.300000 0.000000 0.050000
0.350000 0.000000 0.050000
0.400000 0.000000 0.050000
0.450000 0.000000 0.050000
0.500000 0.000000 0.050000
0.550000 0.000000 0.050000
0.600000 0.000000 0.050000
0.650000 0.000000 0.050000
0.700000 0.000000 0.050000
0.750000 0.000000 0.050000
0.800000 0.000000 0.050000
0.850000 0.000000 0.050000
0.900000 0.000000 0.050000
0.950000 0.000000 0.050000
1.000000 0.000000 0.050000
0.000000 0.100000 0.050000
0.050000 0.100000 0.050000
0.100000 0.100000 0.050000
0.150000 0.100000 0.050000
0.200000 0.100000 0.050000
0.250000 0.100000 0.050000
0.300000 0.100000 0.050000
0.350000 0.100000 0.050000
0.400000 0.100000 0.050000
0.450000 0.100000 0.050000
0.500000 0.100000 0.050000
0.550000 0.100000 0.050000
0.600000 0.100000 0.050000
0.650000 0.100000 0.050000
0.700000 0.100000 0.050000
0.750000 0.100000 0.050000
0.800000 0.100000 0.050000
0.850000 0.100000 0.050000
0.900000 0.100000 0.050000
0.950000 0.100000 0.050000
1.000000 0.100000 0.050000
0.000000 0.200000 0.050000
0.050000 0.200000 0.050000
0.100000 0.200000 0.050000
0.150000 0.200000 0.050000
0.200000 0.200000 0.050000
0.250000 0.200000 0.050000
0.300000 0.200000 0.050000
0.350000 0.200000 0.050000
0.400000 0.200000 0.050000
0.450000 0.200000 0.050000
0.500000 0.200000 0.050000
0.550000 0.200000 0.050000
0.600000 0.200000 0.050000
0.650000 0.200000 0.050000
0.700000 0.200000 0.050000
0.750000 0.200000 0.050000
0.800000 0.200000 0.050000
0.850000 0.200000 0.050000
0.900000 0.200000 0.050000
0.950000 0.200000 0.050000
1.000000 0.200000 0.050000
0.000000 0.300000 0.050000
0.050000 0.300000 0.050000
0.100000 0.300000 0.050000
0.150000 0.300000 0.050000
0.200000 0.300000 0.050000
0.250000 0.300000 0.050000
0.300000 0.300000 0.050000
0.350000 0.300000 0.050000
0.400000 0.300000 0.050000
0.450000 0.300000 0.050000
0.500000 0.300000 0.050000
0.550000 0.300000 0.050000
0.600000 0.300000 0.050000
0.650000 0.300000 0.050000
0.700000 0.300000 0.050000
0.750000 0.300000 0.050000
0.800000 0.300000 0.050000
0.850000 0.300000 0.050000
0.900000 0.300000 0.050000
0.950000 0.300000 0.050000
1.000000 0.300000 0.050000
0.000000 0.400000 0.050000
0.050000 0.400000 0.050000
0.100000 0.400000 0.050000
0.150000 0.400000 0.050000
0.200000 0.400000 0.050000
0.250000 0.400000 0.050000
0.300000 0.400000 0.050000
0.350000 0.400000 0.050000
0.400000 0.400000 0.050000
0.450000 0.400000 0.050000
0.500000 0.400000 0.050000
0.550000 0.400000 0.050000
0.600000 0.400000 0.050000
0.650000 0.400000 0.050000
0.700000 0.400000 0.050000
0.750000 0.400000 0.050000
0.800000 0.400000 0.050000
0.850000 0.400000 0.050000
0.900000 0.400000 0.050000
0.950000 0.400000 0.050000
1.000000 0.400000 0.050000
0.000000 0.500000 0.050000
0.050000 0.500000 0.050000
0.100000 0.500000 0.050000
0.150000 0.500000 0.050000
0.200000 0.500000 0.050000
0.250000 0.500000 0.050000
0.300000 0.500000 0.050000
0.350000 0.500000 0.050000
0.400000 0.500000 0.050000
0.450000 0.500000 0.050000
0.500000 0.500000 0.050000
0.550000 0.500000 0.050000
0.600000 0.500000 0.050000
0.650000 0.500000 0.050000
0.700000 0.500000 0.050000
0.750000 0.500000 0.050000
0.800000 0.500000 0.050000
0.850000 0.500000 0.050000
0.900000 0.500000 0.050000
0.950000 0.500000 0.050000
1.000000 0.500000 0.050000
0.000000 0.600000 0.050000
0.050000 0.600000 0.050000
0.100000 0.600000 0.050000
0.150000 0.600000 0.050000
0.200000 0.600000 0.050000
0.250000 0.600000 0.050000
0.300000 0.600000 0.050000
0.350000 0.600000 0.050000
[...]
CELL_DATA 4000
SCALARS pressure float 1
LOOKUP_TABLE default
0.00375492
0.00374188
0.00373187
0.00373698
0.00376775
0.00383373
0.0039443
0.00410838
0.00433287
0.0046203
0.00496594
0.00535514
0.0057619
0.00615026
0.00647984
0.00671555
0.00683999
0.00686213
0.00681819
0.00676492
0.00364884
0.00363695
0.00362866
0.00362693
0.00363923
0.00367467
0.00374363
0.00385714
0.00402559
0.00425661
0.00455215
0.00490507
0.00529616
0.00569294
0.00605234
0.00632842
0.00648641
0.00651687
0.00644837
0.00635294
0.00308027
0.00306318
0.00303237
0.00298416
0.00292324
0.00285825
0.00280137
0.00276882
0.00278088
0.00286056
0.00303033
0.00330617
0.0036897
0.00415971
0.00466662
0.00513548
0.00547546
0.0056262
0.00558721
0.00545223
0.00189744
0.00187393
0.00180285
0.00167401
0.00148971
0.00125862
0.000996281
0.000727643
0.000489012
0.000327162
0.000295583
0.000446637
0.000816685
0.00141048
0.00218358
0.00302212
0.003772
0.0042411
0.00433923
0.00415474
0.000113036
8.45946e-05
-2.96701e-05
-0.000247918
-0.000572248
-0.000995401
-0.00149932
-0.00205137
-0.00260094
-0.00308347
-0.00341507
-0.00350523
-0.00326713
-0.00263524
-0.00159347
-0.000217977
0.00124161
0.00241251
0.00293465
0.00275371
-0.00212584
-0.0021504
-0.00227747
-0.00253923
-0.00295114
-0.0035154
-0.00421907
-0.00503298
-0.00590315
-0.00675451
-0.00748668
-0.00797332
-0.00806902
-0.00761367
-0.00644971
-0.00449724
-0.00196104
0.000564155
0.00217869
0.00229221
-0.0046668
-0.00465863
-0.00470102
-0.00486755
-0.00521281
-0.00576607
-0.00653139
-0.00748953
-0.00859439
-0.00976797
-0.0109027
-0.0118439
-0.0123987
-0.0123015
-0.0112128
-0.0087372
-0.00478951
2.72517e-05
0.00405429
0.00529481
-0.0076688
-0.00750487
-0.00719236
-0.00696242
-0.00696381
-0.00726402
-0.00788391
-0.00880215
-0.00997242
-0.0113086
-0.0126895
-0.0139414
-0.0148138
-0.0149971
-0.0139332
-0.0108192
-0.00499001
0.00349876
0.0124349
0.0168329
-0.0128846
-0.0115503
-0.00997004
-0.00868086
-0.00790114
-0.00765232
-0.0079324
-0.00867058
-0.00976761
-0.0111012
-0.012517
-0.0137793
-0.0145213
-0.0142021
-0.0119501
-0.00672899
0.00229546
0.0164919
0.0346702
0.047237
-0.0327098
-0.0188895
-0.0115928
-0.0078935
-0.00616289
-0.005608
-0.00583092
-0.00659373
-0.00770932
-0.00897766
-0.0101248
-0.0107768
-0.0103993
-0.0080881
-0.00274999
0.00688811
0.0220999
0.0437213
0.072442
0.102626
0.00376909
0.00373849
0.00371789
0.00371742
0.00374479
0.00380785
0.00391522
0.00407562
0.00429619
0.00458005
0.0049234
0.00531259
0.00572227
0.00611617
0.0064524
0.00669349
0.00682127
0.00684689
0.00681066
0.00676727
0.00368337
0.00363876
0.00361576
0.00360796
0.00361683
0.00364846
0.00371177
0.00381727
0.00397553
0.00419517
0.00447992
0.00482491
0.00521302
0.00561264
0.00597992
0.00626583
0.00643484
0.00647561
0.00641732
0.00632197
0.00312743
0.00306694
0.00301654
0.00296028
0.00289519
0.00282601
0.00276311
0.00272205
0.00272356
0.00279231
0.00295352
0.00322657
0.00361634
0.00410346
0.00463583
0.00513987
0.00549942
0.00565137
0.00559393
0.00540937
0.00194531
0.00187526
0.00178155
0.00164307
0.0014546
0.00122093
0.000955843
0.0006838
0.000441737
0.000278255
0.000250733
0.000412945
0.000804582
0.00143395
0.00226702
0.00317109
0.00396095
0.00442451
0.00444996
0.00410863
0.000149809
7.77861e-05
-6.03616e-05
-0.000289289
-0.000617079
-0.00103961
-0.00154002
-0.00208538
-0.00262304
-0.00309337
-0.00341186
-0.00348643
-0.00322768
-0.0025654
-0.00146769
-8.09256e-06
0.00154592
0.00274987
0.00316316
0.00269128
-0.00210647
-0.0021694
-0.00231982
-0.002592
-0.00300584
-0.00356565
-0.00425831
-0.00505404
-0.00590614
-0.00674041
-0.00746093
-0.00794705
-0.00805569
-0.00763372
-0.00649324
-0.00450465
-0.00186886
0.000775348
0.00237567
0.00219108
-0.00465807
-0.0046909
-0.00475437
-0.00492695
-0.00526936
-0.00581278
-0.0065614
-0.00750055
-0.00858784
-0.00974609
-0.010884
-0.0118608
-0.0124909
-0.0125467
-0.011682
-0.00940701
-0.00552306
-0.000527423
0.00378884
0.005016
-0.00761483
-0.00753278
-0.00724404
-0.00701457
-0.00701241
-0.00730012
-0.00790438
-0.00880665
-0.00996412
-0.0112991
-0.0127052
-0.0140331
-0.0150579
-0.0154949
-0.0149854
-0.0125484
-0.00717211
0.00138798
0.0111103
0.0161746
-0.0123442
-0.0113355
-0.00993151
-0.00871724
-0.00798827
-0.00774186
-0.00801861
-0.0087574
-0.00986123
-0.0112193
-0.0126809
-0.0140324
-0.0149823
-0.0151724
-0.0134541
-0.00893235
-0.000395023
0.013686
0.0331014
0.0480926
-0.0317144
-0.0177209
-0.0107313
-0.00735627
-0.0058552
-0.0054478
-0.00576882
-0.00660887
-0.00780314
-0.00917364
-0.0104781
-0.0113541
-0.0112056
-0.00896449
-0.00374474
0.0059168
0.0217186
0.0455801
0.0782277
0.114093
0.00382811
0.00378261
0.0037514
0.00374481
0.00376917
0.00383131
0.00393969
0.00410359
0.00433124
0.00462714
0.00498879
0.00540302
0.00584294
0.0062675
0.00662762
0.00687607
0.00699125
0.00699101
0.00692833
0.00686911
0.00378991
0.00371778
0.00368191
0.00366836
0.00367379
0.00370184
0.00376067
0.00386117
0.00401536
0.0042342
0.00452422
0.004883
0.00529395
0.00572235
0.00611952
0.00642109
0.00658582
0.00660443
0.00651313
0.00638073
0.00327674
0.00317869
0.00311104
0.00304584
0.00297318
0.00289423
0.00281789
0.00276017
0.00274417
0.00279899
0.00295564
0.00323932
0.00365941
0.00419948
0.00479362
0.00534435
0.005727
0.0058558
0.00572902
0.00544826
0.00211492
0.00200296
0.00188792
0.00173545
0.00153281
0.0012807
0.000991003
0.000688665
0.000413873
0.000222786
0.000180379
0.000346417
0.000763417
0.00145279
0.00237208
0.00337926
0.00424593
0.00471406
0.00463712
0.00411672
0.000312184
0.000198789
3.55311e-05
-0.000213848
-0.000563996
-0.00101477
-0.00155147
-0.00214042
-0.00273173
-0.00325484
-0.00362018
-0.00372837
-0.00348423
-0.00281561
-0.00163239
-4.47213e-05
0.00164633
0.00293203
0.00328852
0.0026156
-0.00196909
-0.00206976
-0.00224792
-0.00254604
-0.002989
-0.00358462
-0.00432262
-0.005176
-0.00609847
-0.00701538
-0.00782876
-0.00841293
-0.00861709
-0.00829161
-0.0071616
-0.00511642
-0.00234391
0.000486708
0.00220472
0.00196789
-0.00453562
-0.00460406
-0.00469454
-0.00489195
-0.00526323
-0.00584282
-0.00663736
-0.00763705
-0.00880183
-0.0100668
-0.0113388
-0.0124817
-0.0133074
-0.0135723
-0.0129628
-0.0108663
-0.00701156
-0.00179879
0.0029487
0.00448395
-0.00742609
-0.00739217
-0.00712508
-0.00691081
-0.00692956
-0.00725086
-0.00789709
-0.00886026
-0.0100974
-0.0115428
-0.0131042
-0.0146404
-0.0159247
-0.0166253
-0.0166023
-0.0146336
-0.00961389
-0.000940534
0.00967756
0.0155509
-0.0116289
-0.0107766
-0.0094679
-0.00832137
-0.00765058
-0.00749507
-0.0078323
-0.00864942
-0.00985983
-0.0113539
-0.0129872
-0.0145552
-0.0157719
-0.0162351
-0.0151321
-0.010944
-0.0021322
0.0128149
0.0335121
0.0504139
-0.0304667
-0.0163285
-0.00941863
-0.00622972
-0.00492501
-0.00469461
-0.005169
-0.00615645
-0.00750997
-0.00906822
-0.0106074
-0.0117764
-0.0119836
-0.0101938
-0.00485506
0.00524239
0.0224909
0.0493333
0.086332
0.12706
0.00392392
0.00386683
0.00382689
0.00381521
0.00383764
0.00390084
0.00401385
0.00418729
0.00443124
0.00475236
0.00514991
0.00561107
0.00610577
0.00658303
0.00697466
0.00722675
0.00731429
0.00726443
0.00715256
0.0070682
0.00394229
0.00384646
0.00379887
0.00377917
0.00378011
0.00380372
0.00385835
0.0039565
0.00411297
0.00434224
0.00465433
0.00504876
0.00550784
0.00598393
0.00641745
0.00673312
0.00687859
0.00685135
0.00670491
0.00652947
0.00348877
0.00335652
0.00327214
0.00319593
0.00311158
0.00301754
0.00292264
0.00284512
0.00281253
0.00286003
0.00302477
0.00333649
0.00380641
0.00440919
0.0050691
0.0056608
0.00604549
0.0061289
0.00592198
0.00555542
0.00236167
0.00220917
0.00207215
0.0019015
0.00167683
0.00139538
0.00106865
0.000724233
0.000408033
0.000184004
0.00012295
0.000285979
0.000726942
0.00147827
0.00247849
0.00356484
0.0044788
0.00493246
0.00477542
0.00413946
0.000558556
0.000402563
0.000212037
-6.40618e-05
-0.000447946
-0.00094335
-0.00153706
-0.00219445
-0.00286321
-0.00345997
-0.00388743
-0.00404123
-0.00382802
-0.00313248
-0.00188985
-0.000218312
0.00156014
0.00289786
0.00322917
0.00247973
-0.00174669
-0.001888
-0.00209733
-0.00242927
-0.00291484
-0.00356584
-0.00437562
-0.00531837
-0.00634143
-0.00736732
-0.00829214
-0.00898127
-0.0092738
-0.00902575
-0.00790852
-0.00583567
-0.00298339
-3.26824e-05
0.0017943
0.00161351
-0.00432522
-0.00442978
-0.00455074
-0.00478197
-0.00519564
-0.00583002
-0.00669644
-0.00778401
-0.00905393
-0.0104431
-0.0118566
-0.0131524
-0.0141232
-0.014551
-0.0140856
-0.0120824
-0.00823106
-0.00288538
0.00211011
0.00387235
-0.00714624
-0.00714566
-0.00689908
-0.00670678
-0.00675751
-0.00712688
-0.00783303
-0.00887393
-0.0102074
-0.0117705
-0.0134709
-0.0151637
-0.0166176
-0.0174747
-0.0176023
-0.0157948
-0.0108508
-0.00207369
0.00888476
0.015142
-0.0109673
-0.0101818
-0.0089084
-0.00779502
-0.00716338
-0.00709017
-0.007499
-0.00840249
-0.00972004
-0.0113409
-0.0131179
-0.0148426
-0.0162145
-0.016802
-0.0158906
-0.0117839
-0.00255518
0.0132643
0.0348761
0.0524521
-0.0294325
-0.0152277
-0.00830275
-0.00517133
-0.00396533
-0.00385206
-0.00444817
-0.00556428
-0.00705951
-0.00877824
-0.0105013
-0.0118782
-0.0123125
-0.0107729
-0.00542928
0.00519067
0.0236121
0.0524006
0.0916197
0.133636
0.00404285
0.00397711
0.00393054
0.00391514
0.00393689
0.00400292
0.00412348
0.00431111
0.00457838
0.00493461
0.00538147
0.00590716
0.00647064
0.00700282
0.00742931
0.00768082
0.00772883
0.00761497
0.00744319
0.00733214
0.00411628
0.00400086
0.00394291
0.00391703
0.00391306
0.00393234
0.0039843
0.00408403
0.00424994
0.00450061
0.00484945
0.00529651
0.00581048
0.00634214
0.00681128
0.0071303
0.00724211
0.00715602
0.00694927
0.00673667
0.00372727
0.00356566
0.00346561
0.00337731
0.00327921
0.00316831
0.00305481
0.00296069
0.00291888
0.00297007
0.00315531
0.00350568
0.00402955
0.00469123
0.00539662
0.00600693
0.00637234
0.00640081
0.00612244
0.00569513
0.00264154
0.00245304
0.00229476
0.00210412
0.00185409
0.00154004
0.00117505
0.000791164
0.000440687
0.000191841
0.000114407
0.00028008
0.000747614
0.00154031
0.00258382
0.00370456
0.00463203
0.00506397
0.0048514
0.00415299
0.000843177
0.000648252
0.000431049
0.00012638
-0.000294721
-0.000838254
-0.00149039
-0.00221423
-0.00294999
-0.00360649
-0.00408387
-0.00427762
-0.00409935
-0.00339417
-0.00213506
-0.000433975
0.00138215
0.00274685
0.00307476
0.00230304
-0.00148251
-0.00166162
-0.00190135
-0.00226821
-0.00279866
-0.00350677
-0.00438708
-0.00541056
-0.00651881
-0.00763153
-0.00864133
-0.00941026
-0.0097789
-0.00958934
-0.0085132
-0.00645283
-0.00356936
-0.000548692
0.00135575
0.00122659
-0.00407001
-0.00420777
-0.00435832
-0.00462429
-0.00508163
-0.0057704
-0.00670331
-0.00786563
-0.00921805
-0.0106964
-0.0122034
-0.013593
-0.0146474
-0.0151926
-0.0148175
-0.0128846
-0.00904933
-0.00363825
0.00147573
0.00333824
-0.00683029
-0.00685705
-0.00663154
-0.00646449
-0.00654997
-0.00696663
-0.00772781
-0.00882959
-0.0102323
-0.0118672
-0.0136403
-0.0154049
-0.0169325
-0.0178639
-0.0180119
-0.0162724
-0.0113889
-0.00256267
0.00855611
0.0149038
-0.0104101
-0.00965979
-0.00840477
-0.00731253
-0.00671127
-0.00669722
-0.00716982
-0.00813912
-0.00952799
-0.0112229
-0.0130744
-0.0148696
-0.0163003
-0.0169271
-0.0160518
-0.0119804
-0.0025239
0.0138083
0.0359524
0.0536481
-0.0286631
-0.0144383
-0.00749662
-0.00438246
-0.00322593
-0.00318482
-0.00386527
-0.0050727
-0.00666447
-0.00848463
-0.010313
-0.0117959
-0.0123318
-0.0108769
-0.00554097
0.00543447
0.0245473
0.054326
0.094318
0.13611
0.00416963
0.00409767
0.00404639
0.0040286
0.00405076
0.0041209
0.00425079
0.00445513
0.00474915
0.00514511
0.00564745
0.00624202
0.00686713
0.00745337
0.00791062
0.0081563
0.00816052
0.00798144
0.00775195
0.0076176
0.00429118
0.00416048
0.00409401
0.00406264
0.00405429
0.00407028
0.00412168
0.00422648
0.00440684
0.00468512
0.00507814
0.00557453
0.00614479
0.00672443
0.00721983
0.0075332
0.00760647
0.00746255
0.00720257
0.00696281
0.00396272
0.00377771
0.00366414
0.00356426
0.00345272
0.00332613
0.00319699
0.00309139
0.00304707
0.00310837
0.00331686
0.00370492
0.00427338
0.00497406
0.00570396
0.00631562
0.00665522
0.0066346
0.00630267
0.00583746
0.00291785
0.00270024
0.0025232
0.00231322
0.00203841
0.00169381
0.00129539
0.000879998
0.000504466
0.00023822
0.000152527
0.000319509
0.000806377
0.0016159
0.00267228
0.00379998
0.0047226
0.00513361
0.00488747
0.00415652
0.00112628
0.000899631
0.000658748
0.000326964
-0.000129497
-0.000716854
-0.0014186
-0.00219426
-0.00297638
-0.00367399
-0.00418928
-0.00442412
-0.00427464
-0.00359304
-0.00235015
-0.000649233
0.00118336
0.00256852
0.00290486
0.00212718
-0.00121638
-0.00142627
-0.00169268
-0.0020916
-0.00266295
-0.00342064
-0.00435723
-0.0054385
-0.00660391
-0.00777268
-0.00883843
-0.0096626
-0.0101142
-0.00998695
-0.00897215
-0.00694579
-0.00405076
-0.000979864
0.000982755
0.000885144
-0.00381155
-0.00397616
-0.00415254
-0.00444998
-0.00494621
-0.00568039
-0.00666322
-0.00787538
-0.00927687
-0.010803
-0.0123587
-0.0138009
-0.0149135
-0.0155466
-0.0152608
-0.0134046
-0.00959733
-0.00414878
0.00103267
0.00293502
-0.00652646
-0.00657513
-0.00637003
-0.00622856
-0.00634693
-0.00680321
-0.00760779
-0.00875009
-0.0101895
-0.0118514
-0.0136438
-0.0154234
-0.0169734
-0.0179459
-0.0181157
-0.0164406
-0.0116383
-0.00278774
0.0084353
0.0147861
-0.0099675
-0.00923966
-0.00800142
-0.0069302
-0.00635891
-0.00638548
-0.00691154
-0.00792565
-0.00935347
-0.0110789
-0.0129519
-0.0147599
-0.0161971
-0.0168283
-0.0159741
-0.0119296
-0.00238267
0.0142225
0.0366589
0.0543407
-0.0281131
-0.0138893
-0.00694762
-0.00384865
-0.00272656
-0.00273573
-0.00347591
-0.0047448
-0.00639455
-0.00826633
-0.0101383
-0.0116556
-0.0122172
-0.0107734
-0.00540969
0.00576371
0.0252436
0.0554904
0.0957126
0.13713
0.00428983
0.00421356
0.00415912
0.00414001
0.00416331
0.00423802
0.00437744
0.00459829
0.00491818
0.00535216
0.00590805
0.00655556
0.00723421
0.00786488
0.00834493
0.00858196
0.00854656
0.00831211
0.00803609
0.00788446
0.00445018
0.00430824
0.00423527
0.00419957
0.00418782
0.00420169
0.00425393
0.00436522
0.00456071
0.00486532
0.00529644
0.0058365
0.006451
0.00706599
0.007578
0.00788225
0.00792139
0.00773068
0.00743085
0.00717386
0.00417283
0.00397043
0.00384611
0.00373628
0.003613
0.00347318
0.00333168
0.00321821
0.00317401
0.00324515
0.00347157
0.00388862
0.00448607
0.0052098
0.00595112
0.00655774
0.00687415
0.00681748
0.00645038
0.00596358
0.00316322
0.00292391
0.00273155
0.00250454
0.00220783
0.00183708
0.00141146
0.000971964
0.000578339
0.00029976
0.000206292
0.000374267
0.000862884
0.00167166
0.00272667
0.00385291
0.00477059
0.00516891
0.0049046
0.00415606
0.00137787
0.00112765
0.000867266
0.000511787
2.46244e-05
-0.000599224
-0.00133959
-0.00215227
-0.0029652
-0.00369178
-0.00423819
-0.00451317
-0.00439902
-0.003754
-0.00253814
-0.000844502
0.00100119
0.00240801
0.00275864
0.00197968
-0.000978838
-0.00121134
-0.00149945
-0.00192564
-0.00253127
-0.00332829
-0.00430543
-0.00542426
-0.00662464
-0.00782808
-0.00893305
-0.00980518
-0.010329
-0.0102712
-0.00932173
-0.00733107
-0.00442765
-0.0013142
0.000695963
0.00061942
-0.00358136
-0.00376537
-0.00396258
-0.00428637
-0.00481443
-0.00558335
-0.00659949
-0.00784063
-0.00926596
-0.0108121
-0.0123898
-0.0138639
-0.0150238
-0.0157269
-0.0155304
-0.0137488
-0.0099702
-0.00449709
0.000730802
0.00265526
-0.00626686
-0.00633137
-0.00614408
-0.0060257
-0.00617236
-0.00665982
-0.00749444
-0.00865944
-0.0101152
-0.0117772
-0.01356
-0.0153287
-0.0168816
-0.0178879
-0.0180914
-0.0164648
-0.0117439
-0.00289157
0.0083935
0.0147431
-0.00963524
-0.00892178
-0.00769951
-0.00664922
-0.00610541
-0.00616494
-0.00672867
-0.00777211
-0.00921814
-0.0109489
-0.0128147
-0.0146073
-0.0160288
-0.0166529
-0.0158159
-0.0117836
-0.00220181
0.0145423
0.0371289
0.0547974
-0.0277299
-0.0135138
-0.00658258
-0.00350228
-0.00240962
-0.0024571
-0.00323984
-0.00454868
-0.0062299
-0.00812134
-0.0100002
-0.0115137
-0.012064
-0.0106004
-0.00519402
0.00608546
0.0257545
0.0562235
0.0965265
0.137748
0.0043911
0.00431199
0.00425556
0.00423584
0.00426048
0.00433933
0.00448696
0.00472164
0.0050628
0.00552736
0.00612488
0.00681099
0.00752875
0.00819084
0.00868561
0.00891428
0.00884873
0.0085741
0.00826575
0.00810328
0.00458022
0.00443053
0.00435299
0.00431416
0.00429998
0.00431252
0.00436596
0.00448301
0.00469097
0.00501625
0.00547552
0.00604638
0.0066911
0.00732935
0.00785121
0.00814741
0.00816166
0.00793853
0.00761276
0.00734621
0.0043418
0.00412738
0.00399515
0.0038775
0.00374487
0.00359459
0.0034435
0.00332397
0.00327944
0.00335652
0.00359345
0.0040284
0.00464258
0.00537898
0.00612588
0.00672804
0.00702882
0.00694931
0.00656149
0.00606328
0.00335911
0.00310484
0.00290088
0.00266017
0.00234573
0.00195419
0.00150745
0.00104958
0.000641868
0.000353598
0.000250255
0.000414397
0.000896697
0.00169883
0.00274981
0.00387527
0.00479239
0.00518635
0.00491381
0.00415556
0.0015781
0.00131178
0.00103652
0.000662008
0.000150333
-0.000501779
-0.00127076
-0.00210859
-0.00294325
-0.00369155
-0.00426353
-0.00457347
-0.00449562
-0.00388601
-0.0026942
-0.0010053
0.000854115
0.0022826
0.00264874
0.00187045
-0.000789857
-0.00103748
-0.00134198
-0.0017896
-0.00242175
-0.00324782
-0.00425246
-0.00539496
-0.00661635
-0.00784166
-0.00897536
-0.00988787
-0.0104686
-0.0104751
-0.00958066
-0.00761763
-0.00470561
-0.00155713
0.000491113
0.000430853
-0.00339916
-0.00359583
-0.00380855
-0.00415266
-0.00470475
-0.00549828
-0.0065351
-0.00779146
-0.00922582
-0.0107773
-0.012364
-0.0138591
-0.015057
-0.0158111
-0.0156909
-0.0139715
-0.0102175
-0.00473005
0.000530435
0.0024726
-0.00606802
-0.00614271
-0.00596926
-0.00586934
-0.00603788
-0.00654784
-0.0074014
-0.00857796
-0.0100369
-0.0116872
-0.0134511
-0.0152016
-0.0167508
-0.0177836
-0.018013
-0.016433
-0.0117638
-0.00293263
0.00838086
0.0147376
-0.00940225
-0.00869695
-0.00748769
-0.00645528
-0.00593383
-0.00601859
-0.00660639
-0.00766728
-0.00911972
-0.0108439
-0.0126917
-0.0144604
-0.0158605
-0.0164736
-0.0156458
-0.0116145
-0.00201846
0.0147892
0.0374481
0.0551203
-0.0274732
-0.0132649
-0.00634617
-0.00328403
-0.00221547
-0.00229127
-0.0031028
-0.00443587
-0.00613191
-0.00802607
-0.00989565
-0.0113908
-0.0119177
-0.010427
-0.00498203
0.00635573
0.0261218
0.0566999
0.0970489
0.138213
0.00446389
0.00438305
0.00432546
0.0043055
0.00433123
0.0044131
0.00456655
0.00481088
0.00516664
0.00565177
0.00627593
0.00698671
0.00772895
0.00841019
0.00891332
0.00913593
0.00905116
0.00875181
0.00842418
0.00825609
0.00467182
0.00451728
0.00443681
0.00439593
0.00438012
0.00439179
0.00444608
0.00456703
0.00478337
0.0051227
0.005597
0.00618744
0.00685037
0.00750239
0.00802988
0.00832091
0.00831999
0.00807766
0.00773728
0.00746617
0.00445921
0.00423728
0.00409981
0.00397673
0.00383749
0.00367981
0.00352185
0.00339766
0.00335178
0.00343046
0.00367495
0.00411776
0.00474019
0.00548324
0.0062334
0.00683346
0.00712582
0.00703391
0.00663526
0.0061315
0.00349422
0.00323066
0.00301886
0.00276847
0.00244149
0.00203536
0.00157391
0.00110318
0.000685354
0.000389163
0.000276951
0.000435178
0.000910184
0.00170619
0.00275455
0.00388108
0.00480043
0.00519461
0.00491921
0.00415586
0.00171558
0.00143941
0.00115403
0.00076615
0.000237379
-0.000434054
-0.00122206
-0.00207605
-0.00292524
-0.0036887
-0.00427933
-0.00461417
-0.00456543
-0.00398223
-0.00280677
-0.00111935
0.000751952
0.00219793
0.00257676
0.00179984
-0.000660393
-0.000917077
-0.00123259
-0.00169496
-0.00234514
-0.00319028
-0.00421193
-0.00536833
-0.00660139
-0.00783952
-0.00899238
-0.00993437
-0.0105537
-0.0106086
-0.00975264
-0.00780757
-0.00488856
-0.00171526
0.000359847
0.000311542
-0.00327503
-0.00347906
-0.00370205
-0.00405987
-0.00462785
-0.00543684
-0.0064854
-0.00774847
-0.00918426
-0.0107345
-0.0123237
-0.0138317
-0.0150563
-0.0158425
-0.0157772
-0.0141026
-0.0103673
-0.0048734
0.00040755
0.00236335
-0.00593577
-0.00601623
-0.00585205
-0.00576473
-0.00594781
-0.00647189
-0.00733596
-0.00851709
-0.0099734
-0.0116097
-0.0133557
-0.0150897
-0.016634
-0.0176849
-0.0179304
-0.0163827
-0.0117473
-0.00294361
0.00837898
0.014745
-0.00925603
-0.00855464
-0.00735416
-0.00633429
-0.00582815
-0.00592945
-0.00653074
-0.00760055
-0.00905336