# vtk DataFile Version 2.0
I need something to put here
ASCII

DATASET STRUCTURED_GRID
DIMENSIONS 21 11 1
POINTS 231 float
0.000000 0.000000 0.0
0.050000 0.000000 0.0
0.100000 0.000000 0.0
0.150000 0.000000 0.0
0.200000 0.000000 0.0
0.250000 0.000000 0.0
0.300000 0.000000 0.0
0.350000 0.000000 0.0
0.400000 0.000000 0.0
0.450000 0.000000 0.0
0.500000 0.000000 0.0
0.550000 0.000000 0.0
0.600000 0.000000 0.0
0.650000 0.000000 0.0
0.700000 0.000000 0.0
0.750000 0.000000 0.0
0.800000 0.000000 0.0
0.850000 0.000000 0.0
0.900000 0.000000 0.0
0.950000 0.000000 0.0
1.000000 0.000000 0.0
0.000000 0.100000 0.0
0.050000 0.100000 0.0
0.100000 0.100000 0.0
0.150000 0.100000 0.0
0.200000 0.100000 0.0
0.250000 0.100000 0.0
0.300000 0.100000 0.0
0.350000 0.100000 0.0
0.400000 0.100000 0.0
0.450000 0.100000 0.0
0.500000 0.100000 0.0
0.550000 0.100000 0.0
0.600000 0.100000 0.0
0.650000 0.100000 0.0
0.700000 0.100000 0.0
0.750000 0.100000 0.0
0.800000 0.100000 0.0
0.850000 0.100000 0.0
0.900000 0.100000 0.0
0.950000 0.100000 0.0
1.000000 0.100000 0.0
0.000000 0.200000 0.0
0.050000 0.200000 0.0
0.100000 0.200000 0.0
0.150000 0.200000 0.0
0.200000 0.200000 0.0
0.250000 0.200000 0.0
0.300000 0.200000 0.0
0.350000 0.200000 0.0
0.400000 0.200000 0.0
0.450000 0.200000 0.0
0.500000 0.200000 0.0
0.550000 0.200000 0.0
0.600000 0.200000 0.0
0.650000 0.200000 0.0
0.700000 0.200000 0.0
0.750000 0.200000 0.0
0.800000 0.200000 0.0
0.850000 0.200000 0.0
0.900000 0.200000 0.0
0.950000 0.200000 0.0
1.000000 0.200000 0.0
0.000000 0.300000 0.0
0.050000 0.300000 0.0
0.100000 0.300000 0.0
0.150000 0.300000 0.0
0.200000 0.300000 0.0
0.250000 0.300000 0.0
0.300000 0.300000 0.0
0.350000 0.300000 0.0
0.400000 0.300000 0.0
0.450000 0.300000 0.0
0.500000 0.300000 0.0
0.550000 0.300000 0.0
0.600000 0.300000 0.0
0.650000 0.300000 0.0
0.700000 0.300000 0.0
0.750000 0.300000 0.0
0.800000 0.300000 0.0
0.850000 0.300000 0.0
0.900000 0.300000 0.0
0.950000 0.300000 0.0
1.000000 0.300000 0.0
0.000000 0.400000 0.0
0.050000 0.400000 0.0
0.100000 0.400000 0.0
0.150000 0.400000 0.0
0.200000 0.400000 0.0
0.250000 0.400000 0.0
0.300000 0.400000 0.0
0.350000 0.400000 0.0
0.400000 0.400000 0.0
0.450000 0.400000 0.0
0.500000 0.400000 0.0
0.550000 0.400000 0.0
0.600000 0.400000 0.0
0.650000 0.400000 0.0
0.700000 0.400000 0.0
0.750000 0.400000 0.0
0.800000 0.400000 0.0
0.850000 0.400000 0.0
0.900000 0.400000 0.0
0.950000 0.400000 0.0
1.000000 0.400000 0.0
0.000000 0.500000 0.0
0.050000 0.500000 0.0
0.100000 0.500000 0.0
0.150000 0.500000 0.0
0.200000 0.500000 0.0
0.250000 0.500000 0.0
0.300000 0.500000 0.0
0.350000 0.500000 0.0
0.400000 0.500000 0.0
0.450000 0.500000 0.0
0.500000 0.500000 0.0
0.550000 0.500000 0.0
0.600000 0.500000 0.0
0.650000 0.500000 0.0
0.700000 0.500000 0.0
0.750000 0.500000 0.0
0.800000 0.500000 0.0
0.850000 0.500000 0.0
0.900000 0.500000 0.0
0.950000 0.500000 0.0
1.000000 0.500000 0.0
0.000000 0.600000 0.0
0.050000 0.600000 0.0
0.100000 0.600000 0.0
0.150000 0.600000 0.0
0.200000 0.600000 0.0
0.250000 0.600000 0.0
0.300000 0.600000 0.0
0.350000 0.600000 0.0
0.400000 0.600000 0.0
0.450000 0.600000 0.0
0.500000 0.600000 0.0
0.550000 0.600000 0.0
0.600000 0.600000 0.0
0.650000 0.600000 0.0
0.700000 0.600000 0.0
0.750000 0.600000 0.0
0.800000 0.600000 0.0
0.850000 0.600000 0.0
0.900000 0.600000 0.0
0.950000 0.600000 0.0
1.000000 0.600000 0.0
0.000000 0.700000 0.0
0.050000 0.700000 0.0
0.100000 0.700000 0.0
0.150000 0.700000 0.0
0.200000 0.700000 0.0
0.250000 0.700000 0.0
0.300000 0.700000 0.0
0.350000 0.700000 0.0
0.400000 0.700000 0.0
0.450000 0.700000 0.0
0.500000 0.700000 0.0
0.550000 0.700000 0.0
0.600000 0.700000 0.0
0.650000 0.700000 0.0
0.700000 0.700000 0.0
0.750000 0.700000 0.0
0.800000 0.700000 0.0
0.850000 0.700000 0.0
0.900000 0.700000 0.0
0.950000 0.700000 0.0
1.000000 0.700000 0.0
0.000000 0.800000 0.0
0.050000 0.800000 0.0
0.100000 0.800000 0.0
0.150000 0.800000 0.0
0.200000 0.800000 0.0
0.250000 0.800000 0.0
0.300000 0.800000 0.0
0.350000 0.800000 0.0
0.400000 0.800000 0.0
0.450000 0.800000 0.0
0.500000 0.800000 0.0
0.550000 0.800000 0.0
0.600000 0.800000 0.0
0.650000 0.800000 0.0
0.700000 0.800000 0.0
0.750000 0.800000 0.0
0.800000 0.800000 0.0
0.850000 0.800000 0.0
0.900000 0.800000 0.0
0.950000 0.800000 0.0
1.000000 0.800000 0.0
0.000000 0.900000 0.0
0.050000 0.900000 0.0
0.100000 0.900000 0.0
0.150000 0.900000 0.0
0.200000 0.900000 0.0
0.250000 0.900000 0.0
0.300000 0.900000 0.0
0.350000 0.900000 0.0
0.400000 0.900000 0.0
0.450000 0.900000 0.0
0.500000 0.900000 0.0
0.550000 0.900000 0.0
0.600000 0.900000 0.0
0.650000 0.900000 0.0
0.700000 0.900000 0.0
0.750000 0.900000 0.0
0.800000 0.900000 0.0
0.850000 0.900000 0.0
0.900000 0.900000 0.0
0.950000 0.900000 0.0
1.000000 0.900000 0.0
0.000000 1.000000 0.0
0.050000 1.000000 0.0
0.100000 1.000000 0.0
0.150000 1.000000 0.0
0.200000 1.000000 0.0
0.250000 1.000000 0.0
0.300000 1.000000 0.0
0.350000 1.000000 0.0
0.400000 1.000000 0.0
0.450000 1.000000 0.0
0.500000 1.000000 0.0
0.550000 1.000000 0.0
0.600000 1.000000 0.0
0.650000 1.000000 0.0
0.700000 1.000000 0.0
0.750000 1.000000 0.0
0.800000 1.000000 0.0
0.850000 1.000000 0.0
0.900000 1.000000 0.0
0.950000 1.000000 0.0
1.000000 1.000000 0.0

CELL_DATA 200
SCALARS pressure float 1
LOOKUP_TABLE default
0.00553257
0.00546341
0.00541603
0.00540345
0.00543186
0.00550902
0.00564719
0.00586272
0.00617366
0.00659596
0.00713753
0.00779013
0.00849641
0.00916744
0.00970397
0.0100137
0.0100615
0.00990743
0.00969103
0.00956109
0.00563239
0.00551172
0.00545439
0.00543389
0.00543812
0.0054677
0.00553371
0.00565584
0.00586028
0.00617568
0.00662602
0.00721953
0.00790823
0.00860437
0.00919388
0.0095586
0.00963354
0.00945713
0.00916184
0.00891516
0.005261
0.00509619
0.00500188
0.00492572
0.00484149
0.00474193
0.0046349
0.00454327
0.00450595
0.00457567
0.00481038
0.00525677
0.0059374
0.00676982
0.00762532
0.00831251
0.00864368
0.00853946
0.00810698
0.00759115
0.00416227
0.00397412
0.00382557
0.00364952
0.0034084
0.0030829
0.00266885
0.00218295
0.00167181
0.00121729
0.000930042
0.000925955
0.00132861
0.00220439
0.00346341
0.00484894
0.00596985
0.00643392
0.00610628
0.00525369
0.00232326
0.00213082
0.00191594
0.0016057
0.00115042
0.000510615
-0.000343777
-0.00141982
-0.00267882
-0.00401462
-0.00524705
-0.00614535
-0.00648998
-0.00597074
-0.00444594
-0.00213435
0.000418932
0.00237547
0.00294895
0.00210352
-1.78347e-05
-0.000192899
-0.00044753
-0.000858656
-0.00149341
-0.00241774
-0.00369593
-0.00537236
-0.00743742
-0.00978792
-0.0121968
-0.0143123
-0.0157113
-0.016096
-0.0148165
-0.0118711
-0.00766805
-0.0032913
-0.000444337
-0.000308121
-0.00249335
-0.00262206
-0.00279193
-0.00311592
-0.00370529
-0.00465926
-0.006069
-0.00800735
-0.0104937
-0.0134485
-0.0166465
-0.0196954
-0.0220688
-0.0232722
-0.0228995
-0.0200977
-0.014764
-0.00762217
-0.00107552
0.00137453
-0.00493869
-0.00494869
-0.00472046
-0.00457154
-0.00473514
-0.00534996
-0.00649335
-0.00824188
-0.0106099
-0.0135059
-0.0167038
-0.019837
-0.022425
-0.0238682
-0.023829
-0.0210978
-0.0148576
-0.00447862
0.00811528
0.0150474
-0.00816133
-0.00736738
-0.00605166
-0.00489231
-0.00427563
-0.00430472
-0.00500152
-0.00644617
-0.008591
-0.0112918
-0.0142708
-0.0171005
-0.0192168
-0.0199522
-0.0185121
-0.0129906
-0.00158704
0.016923
0.0407253
0.0588157
-0.0261926
-0.0119761
-0.0049768
-0.0017629
-0.000527173
-0.00049099
-0.00133487
-0.00292601
-0.00514621
-0.00779825
-0.0105343
-0.0127913
-0.0137075
-0.011969
-0.00544315
0.00726876
0.0287755
0.0609699
0.102352
0.143863

VECTORS velocity float
-0.000351796 0.000703592 0
-0.00179502 0.00218285 0
-0.00449902 0.00322516 0
-0.00805572 0.00388823 0
-0.0121629 0.00432622 0
-0.0166379 0.00462361 0
-0.0213333 0.00476724 0
-0.0260526 0.00467139 0
-0.0304973 0.00421793 0
-0.0342548 0.00329714 0
-0.0368252 0.00184361 0
-0.037679 -0.000135966 0
-0.0363389 -0.00254428 0
-0.0325147 -0.00510412 0
-0.0263146 -0.00729595 0
-0.0184552 -0.00842292 0
-0.0103414 -0.00780474 0
-0.00381654 -0.00524494 0
-0.000328171 -0.00173179 0
0.000268863 0.000537732 0
-0.00136687 0.00414092 0
-0.00561566 0.0101295 0
-0.0121941 0.0138433 0
-0.0200256 0.0160464 0
-0.028526 0.0173833 0
-0.0373344 0.0181332 0
-0.0461298 0.0182392 0
-0.0545259 0.0174304 0
-0.0620305 0.0153575 0
-0.0680514 0.0117145 0
-0.0719376 0.00633937 0
-0.0730447 -0.000709958 0
-0.0708165 -0.00910695 0
-0.0648784 -0.0180661 0
-0.0552016 -0.0260875 0
-0.0423578 -0.0310378 0
-0.0278038 -0.0305256 0
-0.0140826 -0.023016 0
-0.00439429 -0.0103141 0
-0.000484505 0.000106454 0
-0.00190354 0.0106817 0
-0.00765917 0.0235976 0
-0.0163185 0.0308509 0
-0.0264192 0.0349032 0
-0.0372752 0.0372394 0
-0.0485328 0.0384092 0
-0.0599021 0.0382925 0
-0.0710135 0.0363921 0
-0.0813551 0.0320881 0
-0.0902649 0.0248454 0
-0.0969645 0.0143801 0
-0.100624 0.000783301 0
-0.100451 -0.0154028 0
-0.0957157 -0.0331178 0
-0.0858444 -0.0501318 0
-0.070722 -0.0629258 0
-0.0511506 -0.0668886 0
-0.0295965 -0.0572034 0
-0.0110896 -0.0325173 0
-0.00170662 -0.00427579 0
-0.00198327 0.0184554 0
-0.00802987 0.0394284 0
-0.0172119 0.0507029 0
-0.0280338 0.0568964 0
-0.0398403 0.0605711 0
-0.0523625 0.0626371 0
-0.0654159 0.0629101 0
-0.0787177 0.0606008 0
-0.0917891 0.0547054 0
-0.103924 0.0443173 0
-0.11421 0.0288795 0
-0.1216 0.00838351 0
-0.125029 -0.0164904 0
-0.123529 -0.0445014 0
-0.1161 -0.073349 0
-0.101774 -0.0986059 0
-0.0801338 -0.113632 0
-0.0523309 -0.109174 0
-0.0233666 -0.0754888 0
-0.00477858 -0.0172462 0
-0.00163856 0.025699 0
-0.00682695 0.0546547 0
-0.0149577 0.0701021 0
-0.024696 0.0786176 0
-0.0354116 0.0838942 0
-0.0468906 0.0873162 0
-0.0590832 0.0887229 0
-0.0719191 0.0870634 0
-0.0851798 0.0809072 0
-0.0984126 0.0688508 0
-0.110882 0.0498575 0
-0.121569 0.0235581 0
-0.129238 -0.00946827 0
-0.132753 -0.0474919 0
-0.130932 -0.0888598 0
-0.122085 -0.129441 0
-0.104245 -0.161758 0
-0.0762085 -0.172726 0
-0.0404723 -0.141338 0
-0.0106785 -0.0481604 0
-0.00105924 0.0310946 0
-0.00464658 0.0668105 0
-0.0104514 0.0858174 0
-0.0172765 0.096029 0
-0.0244291 0.102219 0
-0.0316645 0.10642 0
-0.0390416 0.108758 0
-0.0467991 0.108215 0
-0.0552543 0.103188 0
-0.0646935 0.0919144 0
-0.0752216 0.0727896 0
-0.0865568 0.0446695 0
-0.097822 0.00728844 0
-0.107417 -0.0380268 0
-0.113963 -0.0888755 0
-0.11562 -0.143806 0
-0.108872 -0.196571 0
-0.0895763 -0.232575 0
-0.0558184 -0.220477 0
-0.0176821 -0.104882 0
-0.000814826 0.0348427 0
-0.00336542 0.0753383 0
-0.00691208 0.0959926 0
-0.0101182 0.105916 0
-0.0123063 0.111013 0
-0.013295 0.114074 0
-0.013218 0.115705 0
-0.012433 0.115214 0
-0.01149 0.111213 0
-0.011143 0.102073 0
-0.0124069 0.0862145 0
-0.0166283 0.0623579 0
-0.0253294 0.0295324 0
-0.0390184 -0.0137024 0
-0.0551336 -0.0678769 0
-0.070201 -0.131357 0
-0.0803667 -0.202185 0
-0.0789044 -0.268476 0
-0.0584242 -0.293053 0
-0.0212954 -0.182836 0
-0.00218517 0.0408427 0
-0.00667557 0.0834203 0
-0.00985122 0.101355 0
-0.00993395 0.107131 0
-0.0068991 0.108105 0
-0.00117622 0.107514 0
0.00673346 0.106291 0
0.0161743 0.104175 0
0.0262998 0.100114 0
0.0361082 0.0928612 0
0.0444572 0.0812563 0
0.0501361 0.064401 0
0.0518937 0.0413764 0
0.0478632 0.00989245 0
0.0354017 -0.0343183 0
0.0143673 -0.0927119 0
-0.0109614 -0.169841 0
-0.0323225 -0.261023 0
-0.0371873 -0.331737 0
-0.0168392 -0.259106 0
-0.0119735 0.0691601 0
-0.0286892 0.0975152 0
-0.0311778 0.0985887 0
-0.022826 0.0933597 0
-0.0086434 0.0874416 0
0.00857634 0.0822922 0
0.0273847 0.078077 0
0.0469418 0.0743937 0
0.0665484 0.0704317 0
0.0853643 0.0652954 0
0.10237 0.0581133 0
0.116432 0.0480607 0
0.126434 0.0341985 0
0.131437 0.0151245 0
0.130707 -0.0131673 0
0.122594 -0.0555675 0
0.103464 -0.118069 0
0.0700114 -0.203167 0
0.0281382 -0.296117 0
0.00340966 -0.285965 0
0.0232768 0.0465536 0
0.0733035 0.0534998 0
0.123574 0.0470407 0
0.167385 0.0405817 0
0.205494 0.0356364 0
0.239318 0.0320108 0
0.270006 0.0293654 0
0.298345 0.0273129 0
0.324748 0.0254932 0
0.349272 0.0235546 0
0.371621 0.0211443 0
0.391133 0.0178799 0
0.406697 0.013248 0
0.416526 0.00641001 0
0.417381 -0.00470133 0
0.404254 -0.0215528 0
0.370409 -0.0461357 0
0.306827 -0.0810292 0
0.202943 -0.12674 0
0.0697863 -0.139573 0

